<?xml version="1.0" encoding="utf-8"?>
<VTKFile byte_order="LittleEndian" compressor="vtkZLibDataCompressor" type="PolyData"
         version="0.1">
   <PolyData>
      <Piece NumberOfLines="0" NumberOfPoints="456" NumberOfPolys="908" NumberOfStrips="0"
             NumberOfVerts="0">
         <PointData Normals="Normals">
            <DataArray Name="Normals" NumberOfComponents="3" format="ascii" type="Float32">
0.011830 0.769227 -0.638866
0.090649 0.339365 -0.936277
-0.251431 0.594978 -0.763403
0.304212 0.731801 -0.609854
-0.011972 0.849914 -0.526786
0.354639 0.816506 -0.455577
-0.354091 0.291650 -0.888572
-0.272686 0.020110 -0.961893
-0.041970 -0.128079 -0.990876
0.302563 0.009660 -0.953081
0.511950 0.216774 -0.831214
0.494254 0.478885 -0.725522
-0.336781 0.792925 -0.507788
-0.581485 0.522950 -0.623216
0.669326 0.553330 -0.495811
-0.051792 0.948950 -0.311145
0.294421 0.907854 -0.298525
0.609829 0.748387 -0.260818
-0.618868 0.089363 -0.780395
-0.386935 -0.235791 -0.891450
-0.012797 -0.321988 -0.946657
0.391279 -0.213477 -0.895169
0.606849 -0.077761 -0.791004
0.747261 0.196705 -0.634750
-0.382839 0.850344 -0.361039
-0.634372 0.665947 -0.392538
-0.800975 0.289224 -0.524203
0.848209 0.443172 -0.290069
-0.171986 0.982363 -0.073370
0.136113 0.989866 -0.040467
0.412938 0.910730 -0.007281
0.690157 0.723010 0.030660
-0.687118 -0.164826 -0.707602
-0.369598 -0.429541 -0.823949
0.022690 -0.518612 -0.854709
0.455328 -0.450298 -0.768055
0.745981 -0.218810 -0.628995
0.886126 0.079951 -0.456497
-0.474409 0.870040 -0.134040
-0.747001 0.626689 -0.221925
-0.913115 0.271757 -0.303923
-0.874164 -0.122609 -0.469898
0.984887 0.078440 -0.154416
0.900078 0.433464 0.044371
-0.490396 0.857633 0.154847
-0.190461 0.960547 0.202669
0.096698 0.964886 0.244221
0.403823 0.862790 0.304171
0.701241 0.619514 0.352793
-0.632375 -0.470998 -0.615030
-0.273142 -0.643830 -0.714756
0.181573 -0.688124 -0.702507
0.589172 -0.566802 -0.575857
0.864623 -0.275454 -0.420182
-0.779232 0.623924 0.059303
-0.967494 0.249269 -0.042663
-0.961265 -0.191422 -0.198311
-0.722947 -0.494927 -0.482073
0.991607 -0.109928 0.068046
0.920373 0.261126 0.291080
-0.495873 0.796145 0.346789
-0.803576 0.557281 0.209054
-0.186302 0.883379 0.430037
0.125130 0.847320 0.516131
0.421117 0.682565 0.597298
0.655185 0.408957 0.635205
-0.341326 -0.744877 -0.573284
0.157680 -0.775323 -0.611565
0.565623 -0.715697 -0.409693
0.863273 -0.471317 -0.180612
-0.975607 0.219278 0.010410
-0.968736 -0.214087 -0.125369
-0.740500 -0.614363 -0.272429
-0.328822 -0.830276 -0.450020
0.907236 -0.275352 0.317968
0.851410 0.072997 0.519396
-0.328637 0.725779 0.604353
-0.649490 0.572877 0.499975
-0.859663 0.295188 0.416947
-0.066806 0.717589 0.693256
0.220924 0.584304 0.780885
0.424553 0.343994 0.837510
0.590921 0.007563 0.806694
0.100494 -0.869563 -0.483489
0.620571 -0.707669 -0.337782
0.820349 -0.571642 -0.015920
-0.983798 0.019490 0.178216
-0.862082 -0.497809 0.094869
-0.534675 -0.845054 -0.002441
-0.292493 -0.951240 -0.097929
0.700006 -0.613398 0.365698
0.718248 -0.312349 0.621738
-0.578466 0.361126 0.731413
-0.336944 0.304211 0.891024
-0.761211 0.137306 0.633802
-0.885650 -0.220917 0.408436
-0.186381 0.244516 0.951564
0.138378 0.214342 0.966907
0.426708 -0.013800 0.904284
0.570535 -0.348244 0.743785
-0.151954 -0.982265 -0.109843
0.130007 -0.990226 -0.050503
0.455436 -0.888146 0.061444
-0.727074 -0.686539 0.005252
-0.378648 -0.909328 -0.172478
-0.197181 -0.975375 -0.098814
0.478733 -0.740534 0.471620
-0.668130 0.207058 0.714654
-0.426455 0.365731 0.827271
-0.950728 -0.063698 0.303413
-0.897621 -0.396135 -0.193271
-0.096828 0.466458 0.879228
0.483960 0.208394 0.849915
0.811700 -0.193260 0.551175
0.052088 -0.998263 -0.027510
0.270646 -0.945738 0.179809
-0.428407 -0.654160 -0.623331
0.149377 -0.842128 -0.518177
0.800252 -0.517302 0.303309
-0.719122 0.648301 0.250139
-0.968582 0.240605 0.062907
-0.041075 0.927394 0.371824
-0.959192 -0.051127 -0.278095
-0.695386 -0.192038 -0.692502
0.572932 0.717155 0.396783
0.961048 0.187824 0.202755
0.972019 -0.198466 0.125658
0.651215 -0.747816 -0.129191
0.005339 -0.452709 -0.891643
0.630697 -0.485831 -0.605136
0.948306 -0.311033 -0.063050
-0.139564 0.987879 -0.067955
-0.723833 0.677232 -0.131995
-0.948785 0.300473 -0.097584
-0.958472 0.184618 -0.217363
0.523841 0.851656 0.016502
-0.830004 0.073970 -0.552831
-0.397124 -0.089582 -0.913383
0.872173 0.482874 0.078399
0.973017 -0.127231 0.192484
0.980364 -0.175114 0.090672
0.942664 -0.289728 0.165656
0.444724 -0.378115 -0.811942
0.876891 -0.270705 -0.397216
-0.052727 0.949417 -0.309559
0.542992 0.837863 -0.056079
-0.370447 0.516790 -0.771814
-0.723495 0.306157 -0.618727
-0.624657 0.551585 -0.552773
-0.769912 0.318605 -0.552925
0.807447 0.524233 0.270569
-0.757194 0.246803 -0.604769
-0.246146 0.193758 -0.949668
0.908892 -0.038303 0.415269
0.942645 -0.202826 0.265108
0.917381 -0.255535 0.305145
0.883681 -0.309424 -0.351234
0.988452 -0.122006 0.089875
0.553140 -0.286114 -0.782416
0.173344 0.904032 -0.390740
0.436015 0.874579 0.212139
0.753517 0.341668 0.561671
0.437514 0.333799 -0.834961
0.204223 -0.130065 -0.970245
0.152507 0.324838 -0.933393
-0.254782 0.414477 -0.873667
-0.639475 0.320957 -0.698612
0.850703 -0.058699 0.522358
-0.530782 0.554098 -0.641284
-0.458617 0.647491 -0.608626
0.206453 0.293772 -0.933314
0.943138 -0.095578 0.318362
0.890269 -0.180815 0.418003
0.909529 -0.176477 0.376316
0.929908 -0.131078 0.343642
0.618755 -0.248747 -0.745163
0.623338 -0.157928 -0.765838
0.890355 0.083877 -0.447474
0.241540 0.954323 0.175857
0.413712 0.357215 0.837401
0.658156 0.020803 0.752594
0.146510 0.897918 -0.415064
0.082243 0.127130 -0.988471
-0.185666 0.102726 -0.977228
-0.543124 0.089631 -0.834855
-0.712901 0.070310 -0.697731
-0.830685 0.382251 -0.404780
0.870593 -0.244765 0.426800
0.829883 -0.100969 0.548725
-0.613765 0.561258 -0.555232
-0.213236 0.248965 -0.944747
0.632534 -0.208986 -0.745805
0.981994 0.130388 0.136697
0.907910 0.036310 0.417589
0.855534 -0.104096 0.507174
0.986991 -0.009014 -0.160523
0.548810 -0.318571 -0.772864
0.352343 -0.143625 -0.924785
0.564625 -0.005442 -0.825330
-0.019197 0.673664 0.738788
-0.343555 0.906941 0.243778
0.243864 0.241539 0.939249
0.576419 0.188479 0.795121
-0.789452 0.580767 -0.198684
-0.874234 0.020405 -0.485075
-0.935492 -0.032436 -0.351855
-0.927992 -0.214257 -0.304835
-0.961471 -0.225381 -0.157408
-0.996416 0.026942 -0.080187
0.633027 -0.351936 0.689506
0.734512 -0.162193 0.658928
-0.684745 -0.205564 -0.699191
0.300270 -0.491766 -0.817315
0.556559 -0.441075 -0.704056
0.980451 0.162720 0.110628
0.891318 0.152756 0.426869
0.722128 -0.021571 0.691423
0.866802 0.064090 -0.494516
0.209144 -0.266899 -0.940757
0.419762 -0.062286 -0.905495
-0.088193 0.430032 0.898496
-0.524224 0.571768 0.631087
-0.872452 0.370556 0.318615
0.244339 0.206845 0.947372
-0.991039 0.083701 0.104096
-0.968599 -0.070555 0.238405
-0.917396 -0.261404 0.300087
-0.930932 -0.349557 0.105719
-0.936795 -0.308065 0.165862
-0.933356 -0.348906 -0.084331
-0.902361 -0.428433 -0.046793
0.249107 -0.403546 0.880396
0.327544 -0.336986 0.882698
-0.330143 -0.772422 -0.542558
0.123862 -0.700985 -0.702338
0.949985 0.171309 0.261117
0.908449 0.137133 -0.394861
0.775369 0.067481 0.627893
0.214003 -0.129440 0.968219
0.589962 0.003220 0.807424
0.395586 -0.035105 -0.917758
-0.137921 -0.309779 -0.940752
-0.329762 0.189653 0.924818
-0.682957 0.151717 0.714529
-0.834357 0.059584 0.547995
-0.174598 -0.295981 0.939101
-0.822928 -0.201557 0.531192
-0.874239 -0.432174 0.221206
-0.755870 -0.302216 0.580797
-0.687503 -0.325601 0.649095
-0.620361 -0.737422 -0.267134
-0.909871 -0.412672 -0.042861
-0.226365 -0.383573 0.895339
0.890466 0.164425 0.424304
0.901122 0.204271 -0.382429
0.370360 0.077452 -0.925654
-0.350014 -0.210050 0.912891
0.011536 -0.097243 0.995194
0.554770 0.056416 0.830089
-0.401993 -0.146282 -0.903882
-0.668507 -0.351361 -0.655472
-0.539541 -0.209236 0.815546
-0.639260 -0.280837 0.715875
-0.894927 -0.240442 -0.375891
-0.828522 -0.248324 0.501883
0.762184 0.145747 0.630741
0.961620 0.200684 -0.187115
0.116694 0.065146 -0.991029
-0.111786 -0.082440 0.990307
0.028004 -0.058781 0.997878
-0.823966 -0.178038 -0.537942
-0.872120 -0.254496 0.417899
0.657004 0.078621 0.749776
0.981639 0.184783 -0.047333
0.209382 0.112054 -0.971392
-0.808807 -0.108531 -0.577973
-0.174998 -0.147147 0.973511
-0.921171 -0.246037 0.301514
0.644873 0.005436 0.764271
0.987378 0.126313 -0.095550
0.239575 0.096770 -0.966043
-0.827125 -0.066945 -0.558017
-0.950906 -0.175559 0.254868
-0.302273 -0.153497 0.940781
0.667941 -0.018608 0.743982
0.962959 0.116524 -0.243170
0.113239 0.124359 -0.985754
-0.854180 -0.007287 -0.519927
-0.947290 -0.120971 0.296660
-0.332865 -0.138864 0.932694
0.688108 -0.044537 0.724240
0.967346 0.088457 -0.237521
0.142562 0.124621 -0.981909
-0.842943 0.023892 -0.537472
-0.933577 -0.082814 0.348676
-0.282377 -0.140804 0.948914
0.561054 -0.094735 0.822340
0.990705 0.031544 -0.132320
0.212261 0.145611 -0.966303
-0.780466 0.081749 -0.619830
-0.954932 -0.012995 0.296542
-0.316018 -0.098234 0.943654
0.020535 -0.086393 0.996050
0.808427 -0.069389 0.584491
0.972879 0.010714 -0.231067
0.332455 0.145126 -0.931886
-0.612839 0.123320 -0.780526
-0.986288 0.052881 -0.156331
-0.699531 -0.028449 0.714035
-0.088751 -0.051620 0.994715
0.724088 -0.083522 0.684632
0.992260 -0.017733 -0.122909
0.449058 0.159442 -0.879162
-0.630472 0.194331 -0.751492
-0.954568 0.093294 -0.283012
-0.831082 0.052035 0.553710
-0.113215 0.090776 0.989415
0.661677 0.000842 0.749788
0.986141 -0.037185 -0.161688
0.662778 0.160356 -0.731445
-0.517315 0.386152 -0.763723
-0.959790 0.173686 -0.220535
-0.942026 0.199697 0.269645
-0.605687 0.540418 0.584031
0.191069 0.242130 0.951244
0.872527 0.239849 0.425639
0.968229 0.134555 -0.210781
0.806444 0.156127 -0.570327
-0.019122 0.539747 -0.841610
-0.902208 0.372638 -0.217166
-0.923183 0.360711 -0.132746
-0.432068 0.794153 0.427361
0.122840 0.408202 0.904589
-0.625883 0.742072 -0.239998
0.406391 0.198857 0.891797
0.815852 0.175349 0.551034
0.982827 0.098965 -0.155748
0.981579 0.136491 -0.133689
0.827941 0.297415 -0.475456
0.727677 0.419877 -0.542393
0.152837 0.693490 -0.704069
-0.848578 0.518892 -0.103276
-0.793974 0.603878 -0.070261
-0.758442 0.637085 -0.137431
-0.394640 0.688164 0.608842
-0.510359 0.810528 -0.287362
0.036839 0.345463 0.937709
0.311135 0.040160 0.949517
-0.634150 0.603285 -0.483634
0.409132 -0.051687 0.911010
0.905642 -0.137545 0.401116
0.919433 -0.322741 -0.224683
0.953431 -0.280670 0.110421
0.997457 0.060748 -0.037264
0.829968 0.185502 -0.526063
0.741634 0.224889 -0.631984
0.710249 0.011395 -0.703859
0.372065 0.147170 -0.916465
-0.245692 0.696980 -0.673687
-0.602930 0.779822 -0.168382
-0.582996 0.802091 0.129486
-0.871467 0.488057 -0.048429
-0.682311 0.527057 0.506618
-0.368968 0.132901 0.919891
-0.775502 0.631265 0.010083
-0.553044 0.202639 -0.808133
-0.708405 0.440556 -0.551428
-0.068051 -0.210649 0.975190
0.219495 -0.275940 0.935777
-0.955700 -0.233465 -0.179252
0.258489 -0.217120 0.941298
0.396291 -0.184157 0.899466
0.819294 -0.532809 0.211831
0.734732 -0.624641 -0.264561
0.727458 -0.660640 0.185362
0.741815 -0.383402 0.550194
0.963681 -0.208637 -0.166703
0.789862 -0.028527 -0.612621
0.768860 0.025582 -0.638905
0.616303 -0.206803 -0.759870
0.263659 -0.124214 -0.956585
-0.265623 0.194416 -0.944271
-0.456077 0.746288 -0.484818
-0.251261 0.963816 -0.089028
-0.303252 0.871868 0.384559
-0.641286 0.394715 0.657991
-0.974073 0.218788 0.057570
-0.680773 0.047702 0.730940
-0.318242 -0.135881 0.938221
-0.913903 0.044326 -0.403505
-0.508920 -0.248063 -0.824297
-0.535553 -0.149172 -0.831222
-0.095742 -0.155848 0.983130
0.140186 -0.219007 0.965600
-0.571505 -0.069603 0.817642
-0.914265 -0.396528 0.082976
0.226669 -0.242773 0.943230
0.420080 -0.673850 0.607832
0.484855 -0.863571 -0.138419
0.361060 -0.908773 -0.209204
0.306454 -0.836201 0.454813
0.661220 -0.700060 0.269635
0.753369 -0.104584 -0.649229
0.687418 -0.141916 -0.712262
0.530513 -0.274936 -0.801852
0.249080 -0.258192 -0.933432
-0.171669 -0.023060 -0.984885
-0.688387 0.163314 -0.706719
-0.630972 0.765931 0.123384
-0.510166 0.346810 0.787054
-0.862522 -0.438283 -0.252910
-0.853209 -0.313704 0.416683
-0.566249 -0.400668 0.720296
-0.636670 -0.595824 -0.489535
-0.358080 -0.534972 -0.765234
-0.143893 -0.650226 0.745990
0.160912 -0.674351 0.720665
-0.637171 -0.231223 0.735220
-0.495577 -0.230179 0.837509
-0.454350 -0.488929 0.744657
-0.576725 -0.771896 0.267516
-0.388636 -0.791064 -0.472419
0.158087 -0.971887 0.174483
0.166638 -0.969012 -0.182342
-0.050275 -0.971722 0.230714
-0.071627 -0.922977 -0.378130
0.061779 -0.838021 0.542129
0.267071 -0.891965 0.364790
0.623178 -0.662234 -0.416048
0.567305 -0.130603 -0.813085
0.438215 -0.285951 -0.852173
0.167697 -0.271719 -0.947653
-0.103595 -0.241779 -0.964785
-0.767512 -0.382196 -0.514637
-0.982330 0.080624 0.168899
-0.419469 -0.782099 -0.460834
-0.608311 -0.763817 -0.215736
-0.431627 -0.902028 -0.006637
-0.164834 -0.826862 -0.537707
-0.098529 -0.994209 0.042914
-0.865102 -0.465356 0.187198
-0.561672 -0.557240 0.611562
-0.382834 -0.684735 0.620142
-0.294262 -0.694379 0.656694
-0.054882 -0.975482 -0.213126
-0.123289 -0.862297 0.491165
0.141665 -0.986704 0.079659
0.413900 -0.462902 -0.783842
0.043010 -0.452698 -0.890626
-0.436798 -0.569602 -0.696248
-0.714675 -0.698365 -0.039056
-0.252628 -0.919024 -0.302613
-0.526845 -0.803691 0.276613
-0.224316 -0.967776 0.114420
-0.025796 -0.900940 -0.433175
-0.386401 -0.899922 -0.202077
</DataArray>
         </PointData>
         <Points>
            <DataArray NumberOfComponents="3" format="ascii" type="Float32">	-0.002477 0.016995 -0.015005
0.002395 0.008745 -0.019898
-0.008301 0.014026 -0.016826
0.005017 0.016959 -0.014562
-0.001987 0.019454 -0.011447
0.010080 0.016704 -0.011161
-0.011599 0.007091 -0.019036
-0.008515 -0.001135 -0.022057
0.000289 -0.005398 -0.022840
0.008639 0.000349 -0.021939
0.012970 0.005248 -0.017510
0.011194 0.013352 -0.014598
-0.008172 0.017053 -0.012945
-0.014037 0.010937 -0.015156
0.016501 0.011225 -0.010931
-0.002435 0.021581 -0.005476
0.006820 0.020134 -0.005955
0.014224 0.016553 -0.005312
-0.015239 0.002403 -0.018015
-0.010222 -0.004564 -0.020618
0.000135 -0.008419 -0.022029
0.008982 -0.005546 -0.021381
0.014672 -0.001981 -0.018045
0.017446 0.002947 -0.014912
-0.009526 0.019437 -0.007066
-0.015557 0.014214 -0.009350
-0.018721 0.006112 -0.012860
0.019713 0.010241 -0.004793
-0.003335 0.022320 0.000272
0.002739 0.022201 0.001480
0.009324 0.020155 0.001938
0.016601 0.015366 0.002213
-0.016355 -0.003794 -0.016854
-0.009213 -0.009705 -0.019615
0.001096 -0.011362 -0.020751
0.010143 -0.009440 -0.019306
0.017413 -0.004900 -0.014773
0.021779 0.002080 -0.008108
-0.010266 0.020215 -0.001287
-0.016831 0.015484 -0.003452
-0.021358 0.006734 -0.007108
-0.020600 -0.001949 -0.011513
0.023239 0.000151 -0.005003
0.021191 0.009446 0.000941
-0.011759 0.019207 0.005069
-0.005142 0.021365 0.005890
0.001315 0.021434 0.007480
0.007614 0.019641 0.008813
0.015841 0.013267 0.009994
-0.015186 -0.009554 -0.015426
-0.007178 -0.013398 -0.017906
0.002606 -0.015470 -0.017824
0.013287 -0.011959 -0.015205
0.019589 -0.007901 -0.010654
-0.017826 0.014511 0.002885
-0.022416 0.006367 -0.001298
-0.022369 -0.003762 -0.006009
-0.017102 -0.011452 -0.011330
0.023168 -0.004078 0.001045
0.020930 0.005614 0.008036
-0.013680 0.016147 0.009499
-0.020061 0.010648 0.005442
-0.006251 0.018845 0.011581
0.001684 0.018220 0.013825
0.009045 0.014456 0.015628
0.014467 0.009043 0.016072
-0.008648 -0.015378 -0.015436
0.002419 -0.017454 -0.015893
0.013641 -0.015010 -0.011646
0.021108 -0.009654 -0.005649
-0.023325 0.000908 0.001445
-0.021779 -0.007953 -0.003656
-0.015429 -0.014084 -0.011863
-0.005877 -0.017265 -0.014716
0.020946 -0.005046 0.009449
0.019047 0.001413 0.013917
-0.006738 0.015972 0.015553
-0.013582 0.013923 0.013204
-0.019618 0.008171 0.009802
-0.000794 0.014649 0.018472
0.004011 0.012591 0.019586
0.008432 0.007399 0.020518
0.013908 -0.001132 0.019135
0.005913 -0.018588 -0.013198
0.014936 -0.016960 -0.004963
0.020079 -0.012343 0.001849
-0.023307 0.000131 0.005782
-0.022565 -0.007235 0.000809
-0.016198 -0.014018 -0.005535
-0.007499 -0.017237 -0.009788
0.017328 -0.015576 0.005210
0.016923 -0.007843 0.014489
-0.014388 0.009788 0.015885
-0.007143 0.011180 0.019089
-0.018871 0.003165 0.012110
-0.020430 -0.004411 0.009579
-0.000950 0.008886 0.021972
0.005387 0.004660 0.022361
0.008313 -0.002739 0.022035
0.011579 -0.009985 0.017693
0.000881 -0.019311 -0.009673
0.006934 -0.020043 -0.007526
0.013777 -0.018487 -0.001367
-0.017732 -0.012613 0.001666
-0.010491 -0.016605 -0.002807
-0.003038 -0.018997 -0.003932
0.012286 -0.016033 0.011642
-0.013405 -0.002333 0.016242
-0.006735 0.002796 0.018203
-0.017283 -0.010309 0.012621
-0.015011 -0.017286 0.006412
-0.001180 0.000398 0.021020
0.004981 -0.003158 0.023319
0.008089 -0.010223 0.020474
0.003587 -0.019412 -0.001963
0.009572 -0.018900 0.003404
-0.009255 -0.020974 0.003035
-0.000100 -0.022033 0.004358
0.008796 -0.015782 0.015346
-0.012522 -0.008761 0.024746
-0.016859 -0.016452 0.020160
-0.005221 -0.004536 0.027362
-0.015691 -0.022133 0.013719
-0.013401 -0.027976 0.010140
0.001749 -0.007869 0.029741
0.004871 -0.015449 0.028937
0.004672 -0.022574 0.026080
0.007072 -0.019901 0.009681
-0.008256 -0.030669 0.008415
-0.001263 -0.031454 0.011468
0.003628 -0.029044 0.020664
-0.007412 -0.005619 0.033730
-0.013219 -0.010534 0.029502
-0.017043 -0.018561 0.024564
-0.017855 -0.026354 0.020121
-0.001494 -0.007826 0.036949
-0.015972 -0.034104 0.012750
-0.013306 -0.036384 0.009980
0.003463 -0.012192 0.037704
0.005897 -0.018288 0.037436
0.002460 -0.033495 0.029127
0.003499 -0.024175 0.034484
-0.003490 -0.039780 0.013691
0.002213 -0.038975 0.020130
-0.008356 -0.004661 0.040292
-0.002810 -0.006106 0.042552
-0.015957 -0.009117 0.036729
-0.017713 -0.017165 0.036031
-0.019452 -0.025433 0.030072
-0.020646 -0.034442 0.021189
0.001542 -0.009752 0.044606
-0.018679 -0.041167 0.015345
-0.016568 -0.045269 0.010300
0.002735 -0.014839 0.045287
0.000446 -0.030358 0.037525
0.001122 -0.021574 0.042895
0.001173 -0.046484 0.020837
0.001300 -0.039087 0.030271
-0.007676 -0.047002 0.014007
-0.011861 -0.003033 0.045170
-0.006047 -0.003447 0.049543
-0.002135 -0.009717 0.050907
-0.023754 -0.003751 0.034412
-0.025150 -0.013181 0.037960
-0.025956 -0.022513 0.036068
-0.027216 -0.029292 0.029699
-0.025427 -0.036821 0.025549
-0.001492 -0.019146 0.050020
-0.022738 -0.044435 0.018540
-0.021223 -0.048561 0.013616
-0.019175 -0.051091 0.007240
-0.002113 -0.035392 0.042567
-0.002762 -0.028410 0.046595
0.001531 -0.049118 0.030636
-0.000459 -0.042099 0.036422
-0.014028 -0.053651 0.012700
-0.003219 -0.054833 0.018400
0.002326 -0.052524 0.023953
-0.012079 -0.002299 0.049802
-0.005189 -0.011713 0.053927
-0.003927 -0.021745 0.052330
-0.023990 -0.000667 0.036659
-0.030763 -0.004225 0.031204
-0.032547 -0.018595 0.033705
-0.032606 -0.029247 0.030529
-0.030752 -0.039451 0.028341
-0.027909 -0.046621 0.020934
-0.004795 -0.039017 0.047026
-0.004243 -0.031578 0.051852
-0.027864 -0.051172 0.010825
-0.024667 -0.054766 0.005615
-0.018990 -0.057007 0.006761
0.002241 -0.055094 0.029572
-0.000069 -0.051804 0.036310
-0.002690 -0.045578 0.042472
0.002252 -0.057886 0.023363
-0.015872 -0.058221 0.013075
-0.008836 -0.059318 0.017197
-0.003023 -0.059827 0.019034
-0.015673 -0.004401 0.053223
-0.026814 -0.001416 0.042790
-0.011168 -0.013721 0.056508
-0.009264 -0.023006 0.057399
-0.034392 -0.003336 0.035089
-0.036215 -0.019648 0.035532
-0.037053 -0.029068 0.035290
-0.035596 -0.038458 0.034784
-0.028552 -0.049065 0.028475
-0.029847 -0.054855 0.014019
-0.008906 -0.040759 0.051754
-0.007658 -0.033113 0.056828
-0.026627 -0.058080 0.007329
-0.020250 -0.060743 0.007841
-0.015751 -0.062343 0.015558
0.002952 -0.061176 0.031497
-0.000816 -0.055698 0.040323
-0.006349 -0.051219 0.046438
0.003769 -0.063997 0.025379
-0.008596 -0.064989 0.018003
-0.000764 -0.065629 0.020026
-0.018691 -0.009026 0.054829
-0.031674 -0.006516 0.047900
-0.035806 -0.009822 0.041110
-0.014166 -0.021380 0.060861
-0.036690 -0.017989 0.042046
-0.036255 -0.028933 0.043405
-0.033952 -0.037555 0.042827
-0.029403 -0.054004 0.036416
-0.025418 -0.060006 0.025320
-0.024150 -0.063095 0.032878
-0.029035 -0.061662 0.015104
-0.013648 -0.042361 0.053307
-0.011375 -0.032621 0.060285
-0.025169 -0.063296 0.009231
-0.016790 -0.067283 0.017968
0.003504 -0.068457 0.035276
0.004424 -0.070471 0.025340
-0.002008 -0.066719 0.042821
-0.011456 -0.050612 0.050517
-0.006208 -0.065564 0.047279
-0.002053 -0.071554 0.019799
-0.010400 -0.069994 0.018694
-0.020682 -0.022158 0.059537
-0.029495 -0.020438 0.055218
-0.033583 -0.022230 0.049858
-0.018461 -0.035484 0.058473
-0.032169 -0.031648 0.050787
-0.024487 -0.064328 0.040419
-0.026630 -0.056186 0.043362
-0.029282 -0.044546 0.046970
-0.022429 -0.067252 0.022437
-0.020155 -0.074439 0.034409
-0.019993 -0.045779 0.051486
0.007735 -0.084670 0.033365
0.007734 -0.084669 0.025938
0.001676 -0.085827 0.020821
-0.018077 -0.055800 0.048647
-0.012307 -0.066480 0.048905
-0.000487 -0.084561 0.043358
-0.007283 -0.086439 0.021525
-0.010372 -0.077669 0.021456
-0.025750 -0.034524 0.055902
-0.019906 -0.065511 0.045656
-0.013617 -0.089603 0.029097
-0.014839 -0.087411 0.043946
0.010059 -0.115997 0.040051
0.013363 -0.108601 0.028295
0.007163 -0.114261 0.018856
-0.008703 -0.086589 0.048113
-0.002371 -0.116703 0.046257
-0.006084 -0.115984 0.025754
-0.008280 -0.118186 0.042746
0.015691 -0.146872 0.040367
0.021100 -0.144461 0.029184
0.013034 -0.144623 0.016174
0.001758 -0.147663 0.023058
0.006088 -0.148897 0.043022
-0.000653 -0.150116 0.037253
0.021509 -0.179359 0.038307
0.026024 -0.176514 0.027861
0.018116 -0.176110 0.014599
0.006361 -0.176103 0.021009
0.004929 -0.178482 0.032851
0.010995 -0.177880 0.040382
0.024260 -0.207203 0.035838
0.028468 -0.205266 0.021832
0.017866 -0.205397 0.012910
0.009407 -0.207604 0.018673
0.008471 -0.208887 0.030314
0.014387 -0.208782 0.037462
0.027530 -0.242418 0.031778
0.030899 -0.240622 0.019072
0.021410 -0.239601 0.009514
0.011622 -0.240018 0.014540
0.010426 -0.243067 0.026359
0.017740 -0.243242 0.033926
0.029629 -0.275159 0.026792
0.032486 -0.273536 0.016003
0.022908 -0.271331 0.005837
0.011896 -0.272974 0.011220
0.011337 -0.275564 0.024395
0.019028 -0.276923 0.029931
0.019093 -0.307459 0.026886
0.026727 -0.307165 0.025246
0.031739 -0.305537 0.011009
0.025149 -0.304134 0.001796
0.015617 -0.303951 0.004194
0.009435 -0.305219 0.012723
0.011313 -0.307273 0.023453
0.016922 -0.340433 0.024609
0.027772 -0.340837 0.022229
0.031105 -0.341515 0.008252
0.023210 -0.338712 -0.003722
0.013614 -0.337271 -0.001232
0.008673 -0.337998 0.008750
0.008017 -0.339406 0.020364
0.014048 -0.367251 0.024565
0.028305 -0.370178 0.019031
0.027890 -0.368438 0.002852
0.023345 -0.365343 -0.007616
0.012569 -0.362487 -0.009526
0.006345 -0.367660 0.006607
0.004811 -0.366817 0.020755
0.000248 -0.379953 0.023606
0.013084 -0.381437 0.026328
0.027499 -0.386524 0.021629
0.027315 -0.384931 0.000392
0.019953 -0.378024 -0.013004
0.010093 -0.375358 -0.017522
0.006001 -0.377939 -0.008604
0.004376 -0.380700 0.003900
-0.005393 -0.386908 0.029111
0.009417 -0.394172 0.032120
-0.002827 -0.386950 0.015069
0.020402 -0.397334 0.029406
0.032814 -0.397236 0.022012
0.030595 -0.395803 0.009333
0.028861 -0.395923 -0.001007
0.024914 -0.391159 -0.012309
0.018710 -0.388099 -0.019920
0.004828 -0.387986 -0.032758
0.009144 -0.382211 -0.022783
0.002258 -0.386063 -0.012846
0.001332 -0.387863 0.000840
-0.011961 -0.391566 0.029637
-0.012186 -0.390087 0.014888
-0.000275 -0.398518 0.036690
0.007765 -0.402182 0.034805
-0.009088 -0.392127 0.009640
0.018920 -0.404484 0.030116
0.032902 -0.405952 0.022247
0.030232 -0.405345 0.009686
0.027703 -0.406431 0.000644
0.030531 -0.405352 -0.006931
0.023789 -0.399990 -0.017170
0.017083 -0.394771 -0.026754
0.015372 -0.402297 -0.029554
0.009740 -0.397918 -0.036172
0.000975 -0.394027 -0.036903
-0.002898 -0.391301 -0.025409
-0.003936 -0.392524 -0.015992
-0.004313 -0.394464 -0.001358
-0.019315 -0.397000 0.028132
-0.012413 -0.402755 0.035731
-0.020486 -0.395546 0.022485
-0.013450 -0.400649 0.006858
-0.019200 -0.397443 0.012507
-0.004824 -0.406224 0.037628
0.005202 -0.408443 0.034806
-0.004591 -0.400066 -0.000970
0.014830 -0.411899 0.030451
0.021947 -0.413354 0.028552
0.028592 -0.414204 0.023419
0.027258 -0.413645 0.011555
0.023060 -0.412977 0.000879
0.027359 -0.413810 -0.005224
0.031026 -0.414385 -0.009310
0.027550 -0.410568 -0.015435
0.022468 -0.407738 -0.020543
0.013031 -0.409421 -0.030167
0.004824 -0.402633 -0.037628
-0.009298 -0.397554 -0.035515
-0.017566 -0.394122 -0.027478
-0.005686 -0.393543 -0.027860
-0.012236 -0.392955 -0.018433
-0.010284 -0.398362 -0.012483
-0.024959 -0.404414 0.023714
-0.023783 -0.406220 0.030223
-0.015202 -0.410292 0.031108
-0.022988 -0.405472 0.014433
-0.005308 -0.408388 0.006823
-0.018816 -0.408765 0.009264
-0.009132 -0.413578 0.032898
0.000545 -0.416642 0.032570
-0.003337 -0.408863 -0.008795
0.001689 -0.410554 -0.001186
0.014097 -0.417720 0.029257
0.020491 -0.421304 0.026471
0.020311 -0.421241 0.015215
0.016796 -0.417887 0.005184
0.018396 -0.418868 -0.003280
0.026726 -0.421107 -0.010691
0.025205 -0.417231 -0.017918
0.019397 -0.413299 -0.022148
0.010578 -0.414317 -0.030513
0.000397 -0.411863 -0.035794
-0.009689 -0.409211 -0.036175
-0.022736 -0.408518 -0.033296
-0.019783 -0.395822 -0.020487
-0.019043 -0.403336 -0.012733
-0.024375 -0.410552 0.020086
-0.023886 -0.412954 0.028519
-0.018479 -0.417224 0.032330
-0.017494 -0.415397 0.012962
-0.007925 -0.416280 0.008166
-0.010256 -0.422335 0.032869
0.003120 -0.423059 0.030607
-0.020542 -0.409831 -0.013941
-0.015510 -0.415554 -0.013776
-0.006817 -0.422000 -0.013327
0.004846 -0.416357 -0.000432
0.004736 -0.417706 0.006339
0.011093 -0.423568 0.026485
0.011812 -0.424598 0.018470
0.010714 -0.418415 0.000539
0.009960 -0.421177 0.009923
0.011753 -0.421603 -0.004630
0.016987 -0.425625 -0.012163
0.019878 -0.425175 -0.021438
0.014965 -0.418886 -0.025153
0.007382 -0.420808 -0.029198
0.001106 -0.417849 -0.033892
-0.009720 -0.415455 -0.035528
-0.020209 -0.414476 -0.033413
-0.024482 -0.403513 -0.020683
-0.011968 -0.418955 0.013392
-0.016920 -0.419300 0.019088
-0.014226 -0.421751 0.025097
-0.001221 -0.420783 0.011535
-0.003397 -0.424534 0.023943
-0.023190 -0.415806 -0.022676
-0.016699 -0.420793 -0.017889
-0.006066 -0.426428 -0.015533
0.003960 -0.421652 -0.006913
0.003665 -0.424559 0.017867
0.002181 -0.429172 -0.015118
0.006767 -0.430363 -0.020581
0.009659 -0.428067 -0.027432
-0.006606 -0.425121 -0.033696
-0.015949 -0.422695 -0.031049
-0.018080 -0.422181 -0.023897
-0.007064 -0.422840 0.017636
-0.011267 -0.426908 -0.020629
-0.003944 -0.429494 -0.020289
-0.000910 -0.428210 -0.031016
-0.010415 -0.427177 -0.026879
</DataArray>
         </Points>
         <Polys>
            <DataArray Name="connectivity" format="ascii" type="Int32">